ITEM: TIMESTEP
0
ITEM: NUMBER OF ATOMS
1024
ITEM: BOX BOUNDS pp pp pp
0.0000000000000000e+00 2.5920000000000002e+01
0.0000000000000000e+00 2.5920000000000002e+01
0.0000000000000000e+00 2.5920000000000002e+01
ITEM: ATOMS id type x y z
1 2 0 0 0
2 2 1.62 1.62 1.62
3 2 3.24 0 0
4 2 4.86 1.62 1.62
5 3 6.48 0 0
6 2 8.1 1.62 1.62
7 1 9.72 0 0
8 1 11.34 1.62 1.62
9 3 12.96 0 0
10 1 14.58 1.62 1.62
11 2 16.2 0 0
12 1 17.82 1.62 1.62
13 2 19.44 0 0
14 1 21.06 1.62 1.62
15 2 22.68 0 0
16 1 24.3 1.62 1.62
17 2 0 3.24 0
18 3 1.62 4.86 1.62
19 2 3.24 3.24 0
20 1 4.86 4.86 1.62
21 2 6.48 3.24 0
22 1 8.1 4.86 1.62
23 1 9.72 3.24 0
24 1 11.34 4.86 1.62
25 2 12.96 3.24 0
26 1 14.58 4.86 1.62
27 1 16.2 3.24 0
28 1 17.82 4.86 1.62
29 1 19.44 3.24 0
30 3 21.06 4.86 1.62
31 3 22.68 3.24 0
32 2 24.3 4.86 1.62
33 1 0 6.48 0
34 2 1.62 8.1 1.62
35 3 3.24 6.48 0
36 1 4.86 8.1 1.62
37 3 6.48 6.48 0
38 1 8.1 8.1 1.62
39 2 9.72 6.48 0
40 1 11.34 8.1 1.62
41 3 12.96 6.48 0
42 3 14.58 8.1 1.62
43 2 16.2 6.48 0
44 2 17.82 8.1 1.62
45 2 19.44 6.48 0
46 3 21.06 8.1 1.62
47 3 22.68 6.48 0
48 3 24.3 8.1 1.62
49 2 0 9.72 0
50 2 1.62 11.34 1.62
51 1 3.24 9.72 0
52 1 4.86 11.34 1.62
53 3 6.48 9.72 0
54 3 8.1 11.34 1.62
55 1 9.72 9.72 0
56 3 11.34 11.34 1.62
57 3 12.96 9.72 0
58 3 14.58 11.34 1.62
59 1 16.2 9.72 0
60 2 17.82 11.34 1.62
61 1 19.44 9.72 0
62 2 21.06 11.34 1.62
63 1 22.68 9.72 0
64 3 24.3 11.34 1.62
65 1 0 12.96 0
66 2 1.62 14.58 1.62
67 2 3.24 12.96 0
68 2 4.86 14.58 1.62
69 3 6.48 12.96 0
70 3 8.1 14.58 1.62
71 3 9.72 12.96 0
72 1 11.34 14.58 1.62
73 3 12.96 12.96 0
74 1 14.58 14.58 1.62
75 2 16.2 12.96 0
76 1 17.82 14.58 1.62
77 2 19.44 12.96 0
78 2 21.06 14.58 1.62
79 2 22.68 12.96 0
80 1 24.3 14.58 1.62
81 2 0 16.2 0
82 1 1.62 17.82 1.62
83 1 3.24 16.2 0
84 1 4.86 17.82 1.62
85 2 6.48 16.2 0
86 1 8.1 17.82 1.62
87 2 9.72 16.2 0
88 2 11.34 17.82 1.62
89 2 12.96 16.2 0
90 3 14.58 17.82 1.62
91 3 16.2 16.2 0
92 3 17.82 17.82 1.62
93 3 19.44 16.2 0
94 1 21.06 17.82 1.62
95 2 22.68 16.2 0
96 2 24.3 17.82 1.62
97 2 0 19.44 0
98 3 1.62 21.06 1.62
99 1 3.24 19.44 0
100 1 4.86 21.06 1.62
101 1 6.48 19.44 0
102 1 8.1 21.06 1.62
103 3 9.72 19.44 0
104 1 11.34 21.06 1.62
105 3 12.96 19.44 0
106 2 14.58 21.06 1.62
107 3 16.2 19.44 0
108 1 17.82 21.06 1.62
109 3 19.44 19.44 0
110 1 21.06 21.06 1.62
111 3 22.68 19.44 0
112 2 24.3 21.06 1.62
113 1 0 22.68 0
114 1 1.62 24.3 1.62
115 2 3.24 22.68 0
116 3 4.86 24.3 1.62
117 2 6.48 22.68 0
118 3 8.1 24.3 1.62
119 2 9.72 22.68 0
120 3 11.34 24.3 1.62
121 2 12.96 22.68 0
122 1 14.58 24.3 1.62
123 1 16.2 22.68 0
124 2 17.82 24.3 1.62
125 1 19.44 22.68 0
126 2 21.06 24.3 1.62
127 2 22.68 22.68 0
128 3 24.3 24.3 1.62
129 1 0 0 3.24
130 3 1.62 1.62 4.86
131 1 3.24 0 3.24
132 1 4.86 1.62 4.86
133 2 6.48 0 3.24
134 3 8.1 1.62 4.86
135 3 9.72 0 3.24
136 2 11.34 1.62 4.86
137 2 12.96 0 3.24
138 3 14.58 1.62 4.86
139 2 16.2 0 3.24
140 2 17.82 1.62 4.86
141 3 19.44 0 3.24
142 2 21.06 1.62 4.86
143 1 22.68 0 3.24
144 2 24.3 1.62 4.86
145 1 0 3.24 3.24
146 2 1.62 4.86 4.86
147 2 3.24 3.24 3.24
148 2 4.86 4.86 4.86
149 2 6.48 3.24 3.24
150 2 8.1 4.86 4.86
151 2 9.72 3.24 3.24
152 1 11.34 4.86 4.86
153 2 12.96 3.24 3.24
154 1 14.58 4.86 4.86
155 3 16.2 3.24 3.24
156 2 17.82 4.86 4.86
157 1 19.44 3.24 3.24
158 3 21.06 4.86 4.86
159 1 22.68 3.24 3.24
160 1 24.3 4.86 4.86
161 1 0 6.48 3.24
162 2 1.62 8.1 4.86
163 2 3.24 6.48 3.24
164 2 4.86 8.1 4.86
165 2 6.48 6.48 3.24
166 2 8.1 8.1 4.86
167 3 9.72 6.48 3.24
168 3 11.34 8.1 4.86
169 1 12.96 6.48 3.24
170 2 14.58 8.1 4.86
171 3 16.2 6.48 3.24
172 3 17.82 8.1 4.86
173 2 19.44 6.48 3.24
174 2 21.06 8.1 4.86
175 2 22.68 6.48 3.24
176 2 24.3 8.1 4.86
177 3 0 9.72 3.24
178 3 1.62 11.34 4.86
179 1 3.24 9.72 3.24
180 2 4.86 11.34 4.86
181 3 6.48 9.72 3.24
182 1 8.1 11.34 4.86
183 3 9.72 9.72 3.24
184 2 11.34 11.34 4.86
185 2 12.96 9.72 3.24
186 3 14.58 11.34 4.86
187 3 16.2 9.72 3.24
188 1 17.82 11.34 4.86
189 2 19.44 9.72 3.24
190 3 21.06 11.34 4.86
191 1 22.68 9.72 3.24
192 3 24.3 11.34 4.86
193 2 0 12.96 3.24
194 2 1.62 14.58 4.86
195 3 3.24 12.96 3.24
196 1 4.86 14.58 4.86
197 1 6.48 12.96 3.24
198 2 8.1 14.58 4.86
199 3 9.72 12.96 3.24
200 2 11.34 14.58 4.86
201 2 12.96 12.96 3.24
202 1 14.58 14.58 4.86
203 3 16.2 12.96 3.24
204 1 17.82 14.58 4.86
205 1 19.44 12.96 3.24
206 1 21.06 14.58 4.86
207 1 22.68 12.96 3.24
208 1 24.3 14.58 4.86
209 3 0 16.2 3.24
210 3 1.62 17.82 4.86
211 2 3.24 16.2 3.24
212 1 4.86 17.82 4.86
213 1 6.48 16.2 3.24
214 3 8.1 17.82 4.86
215 3 9.72 16.2 3.24
216 3 11.34 17.82 4.86
217 2 12.96 16.2 3.24
218 2 14.58 17.82 4.86
219 2 16.2 16.2 3.24
220 1 17.82 17.82 4.86
221 1 19.44 16.2 3.24
222 3 21.06 17.82 4.86
223 3 22.68 16.2 3.24
224 1 24.3 17.82 4.86
225 1 0 19.44 3.24
226 1 1.62 21.06 4.86
227 3 3.24 19.44 3.24
228 1 4.86 21.06 4.86
229 1 6.48 19.44 3.24
230 2 8.1 21.06 4.86
231 2 9.72 19.44 3.24
232 1 11.34 21.06 4.86
233 1 12.96 19.44 3.24
234 3 14.58 21.06 4.86
235 2 16.2 19.44 3.24
236 2 17.82 21.06 4.86
237 1 19.44 19.44 3.24
238 1 21.06 21.06 4.86
239 1 22.68 19.44 3.24
240 1 24.3 21.06 4.86
241 1 0 22.68 3.24
242 1 1.62 24.3 4.86
243 1 3.24 22.68 3.24
244 1 4.86 24.3 4.86
245 3 6.48 22.68 3.24
246 3 8.1 24.3 4.86
247 2 9.72 22.68 3.24
248 1 11.34 24.3 4.86
249 3 12.96 22.68 3.24
250 2 14.58 24.3 4.86
251 3 16.2 22.68 3.24
252 2 17.82 24.3 4.86
253 2 19.44 22.68 3.24
254 2 21.06 24.3 4.86
255 2 22.68 22.68 3.24
256 1 24.3 24.3 4.86
257 2 0 0 6.48
258 2 1.62 1.62 8.1
259 1 3.24 0 6.48
260 2 4.86 1.62 8.1
261 1 6.48 0 6.48
262 2 8.1 1.62 8.1
263 3 9.72 0 6.48
264 2 11.34 1.62 8.1
265 1 12.96 0 6.48
266 1 14.58 1.62 8.1
267 3 16.2 0 6.48
268 1 17.82 1.62 8.1
269 1 19.44 0 6.48
270 2 21.06 1.62 8.1
271 1 22.68 0 6.48
272 3 24.3 1.62 8.1
273 3 0 3.24 6.48
274 2 1.62 4.86 8.1
275 3 3.24 3.24 6.48
276 1 4.86 4.86 8.1
277 3 6.48 3.24 6.48
278 1 8.1 4.86 8.1
279 3 9.72 3.24 6.48
280 2 11.34 4.86 8.1
281 3 12.96 3.24 6.48
282 1 14.58 4.86 8.1
283 3 16.2 3.24 6.48
284 1 17.82 4.86 8.1
285 1 19.44 3.24 6.48
286 2 21.06 4.86 8.1
287 3 22.68 3.24 6.48
288 1 24.3 4.86 8.1
289 1 0 6.48 6.48
290 3 1.62 8.1 8.1
291 3 3.24 6.48 6.48
292 1 4.86 8.1 8.1
293 1 6.48 6.48 6.48
294 2 8.1 8.1 8.1
295 2 9.72 6.48 6.48
296 3 11.34 8.1 8.1
297 1 12.96 6.48 6.48
298 1 14.58 8.1 8.1
299 1 16.2 6.48 6.48
300 2 17.82 8.1 8.1
301 2 19.44 6.48 6.48
302 3 21.06 8.1 8.1
303 3 22.68 6.48 6.48
304 1 24.3 8.1 8.1
305 3 0 9.72 6.48
306 2 1.62 11.34 8.1
307 3 3.24 9.72 6.48
308 1 4.86 11.34 8.1
309 3 6.48 9.72 6.48
310 3 8.1 11.34 8.1
311 2 9.72 9.72 6.48
312 3 11.34 11.34 8.1
313 3 12.96 9.72 6.48
314 3 14.58 11.34 8.1
315 2 16.2 9.72 6.48
316 3 17.82 11.34 8.1
317 3 19.44 9.72 6.48
318 3 21.06 11.34 8.1
319 1 22.68 9.72 6.48
320 2 24.3 11.34 8.1
321 1 0 12.96 6.48
322 2 1.62 14.58 8.1
323 2 3.24 12.96 6.48
324 2 4.86 14.58 8.1
325 3 6.48 12.96 6.48
326 1 8.1 14.58 8.1
327 1 9.72 12.96 6.48
328 3 11.34 14.58 8.1
329 1 12.96 12.96 6.48
330 2 14.58 14.58 8.1
331 1 16.2 12.96 6.48
332 2 17.82 14.58 8.1
333 2 19.44 12.96 6.48
334 1 21.06 14.58 8.1
335 3 22.68 12.96 6.48
336 3 24.3 14.58 8.1
337 3 0 16.2 6.48
338 1 1.62 17.82 8.1
339 3 3.24 16.2 6.48
340 1 4.86 17.82 8.1
341 1 6.48 16.2 6.48
342 1 8.1 17.82 8.1
343 3 9.72 16.2 6.48
344 2 11.34 17.82 8.1
345 1 12.96 16.2 6.48
346 1 14.58 17.82 8.1
347 1 16.2 16.2 6.48
348 3 17.82 17.82 8.1
349 3 19.44 16.2 6.48
350 2 21.06 17.82 8.1
351 3 22.68 16.2 6.48
352 1 24.3 17.82 8.1
353 1 0 19.44 6.48
354 3 1.62 21.06 8.1
355 3 3.24 19.44 6.48
356 3 4.86 21.06 8.1
357 2 6.48 19.44 6.48
358 3 8.1 21.06 8.1
359 3 9.72 19.44 6.48
360 1 11.34 21.06 8.1
361 2 12.96 19.44 6.48
362 2 14.58 21.06 8.1
363 2 16.2 19.44 6.48
364 1 17.82 21.06 8.1
365 1 19.44 19.44 6.48
366 1 21.06 21.06 8.1
367 1 22.68 19.44 6.48
368 3 24.3 21.06 8.1
369 2 0 22.68 6.48
370 3 1.62 24.3 8.1
371 1 3.24 22.68 6.48
372 1 4.86 24.3 8.1
373 2 6.48 22.68 6.48
374 3 8.1 24.3 8.1
375 3 9.72 22.68 6.48
376 3 11.34 24.3 8.1
377 2 12.96 22.68 6.48
378 3 14.58 24.3 8.1
379 2 16.2 22.68 6.48
380 2 17.82 24.3 8.1
381 1 19.44 22.68 6.48
382 3 21.06 24.3 8.1
383 3 22.68 22.68 6.48
384 3 24.3 24.3 8.1
385 3 0 0 9.72
386 3 1.62 1.62 11.34
387 1 3.24 0 9.72
388 3 4.86 1.62 11.34
389 2 6.48 0 9.72
390 1 8.1 1.62 11.34
391 2 9.72 0 9.72
392 1 11.34 1.62 11.34
393 3 12.96 0 9.72
394 3 14.58 1.62 11.34
395 2 16.2 0 9.72
396 1 17.82 1.62 11.34
397 1 19.44 0 9.72
398 1 21.06 1.62 11.34
399 3 22.68 0 9.72
400 3 24.3 1.62 11.34
401 3 0 3.24 9.72
402 2 1.62 4.86 11.34
403 2 3.24 3.24 9.72
404 2 4.86 4.86 11.34
405 1 6.48 3.24 9.72
406 2 8.1 4.86 11.34
407 3 9.72 3.24 9.72
408 3 11.34 4.86 11.34
409 1 12.96 3.24 9.72
410 1 14.58 4.86 11.34
411 1 16.2 3.24 9.72
412 2 17.82 4.86 11.34
413 2 19.44 3.24 9.72
414 3 21.06 4.86 11.34
415 2 22.68 3.24 9.72
416 1 24.3 4.86 11.34
417 2 0 6.48 9.72
418 1 1.62 8.1 11.34
419 3 3.24 6.48 9.72
420 3 4.86 8.1 11.34
421 1 6.48 6.48 9.72
422 1 8.1 8.1 11.34
423 3 9.72 6.48 9.72
424 3 11.34 8.1 11.34
425 1 12.96 6.48 9.72
426 3 14.58 8.1 11.34
427 3 16.2 6.48 9.72
428 2 17.82 8.1 11.34
429 3 19.44 6.48 9.72
430 1 21.06 8.1 11.34
431 3 22.68 6.48 9.72
432 1 24.3 8.1 11.34
433 1 0 9.72 9.72
434 3 1.62 11.34 11.34
435 3 3.24 9.72 9.72
436 1 4.86 11.34 11.34
437 2 6.48 9.72 9.72
438 2 8.1 11.34 11.34
439 3 9.72 9.72 9.72
440 2 11.34 11.34 11.34
441 3 12.96 9.72 9.72
442 2 14.58 11.34 11.34
443 3 16.2 9.72 9.72
444 1 17.82 11.34 11.34
445 3 19.44 9.72 9.72
446 1 21.06 11.34 11.34
447 3 22.68 9.72 9.72
448 2 24.3 11.34 11.34
449 1 0 12.96 9.72
450 2 1.62 14.58 11.34
451 3 3.24 12.96 9.72
452 2 4.86 14.58 11.34
453 2 6.48 12.96 9.72
454 3 8.1 14.58 11.34
455 3 9.72 12.96 9.72
456 3 11.34 14.58 11.34
457 3 12.96 12.96 9.72
458 3 14.58 14.58 11.34
459 2 16.2 12.96 9.72
460 3 17.82 14.58 11.34
461 3 19.44 12.96 9.72
462 3 21.06 14.58 11.34
463 2 22.68 12.96 9.72
464 2 24.3 14.58 11.34
465 2 0 16.2 9.72
466 1 1.62 17.82 11.34
467 2 3.24 16.2 9.72
468 1 4.86 17.82 11.34
469 3 6.48 16.2 9.72
470 1 8.1 17.82 11.34
471 2 9.72 16.2 9.72
472 2 11.34 17.82 11.34
473 2 12.96 16.2 9.72
474 1 14.58 17.82 11.34
475 2 16.2 16.2 9.72
476 3 17.82 17.82 11.34
477 3 19.44 16.2 9.72
478 2 21.06 17.82 11.34
479 2 22.68 16.2 9.72
480 3 24.3 17.82 11.34
481 1 0 19.44 9.72
482 2 1.62 21.06 11.34
483 1 3.24 19.44 9.72
484 3 4.86 21.06 11.34
485 1 6.48 19.44 9.72
486 3 8.1 21.06 11.34
487 1 9.72 19.44 9.72
488 3 11.34 21.06 11.34
489 1 12.96 19.44 9.72
490 1 14.58 21.06 11.34
491 1 16.2 19.44 9.72
492 3 17.82 21.06 11.34
493 2 19.44 19.44 9.72
494 2 21.06 21.06 11.34
495 3 22.68 19.44 9.72
496 1 24.3 21.06 11.34
497 1 0 22.68 9.72
498 2 1.62 24.3 11.34
499 1 3.24 22.68 9.72
500 1 4.86 24.3 11.34
501 3 6.48 22.68 9.72
502 2 8.1 24.3 11.34
503 1 9.72 22.68 9.72
504 2 11.34 24.3 11.34
505 3 12.96 22.68 9.72
506 2 14.58 24.3 11.34
507 1 16.2 22.68 9.72
508 1 17.82 24.3 11.34
509 2 19.44 22.68 9.72
510 2 21.06 24.3 11.34
511 3 22.68 22.68 9.72
512 2 24.3 24.3 11.34
513 2 0 0 12.96
514 2 1.62 1.62 14.58
515 1 3.24 0 12.96
516 2 4.86 1.62 14.58
517 1 6.48 0 12.96
518 2 8.1 1.62 14.58
519 1 9.72 0 12.96
520 3 11.34 1.62 14.58
521 3 12.96 0 12.96
522 3 14.58 1.62 14.58
523 2 16.2 0 12.96
524 2 17.82 1.62 14.58
525 1 19.44 0 12.96
526 3 21.06 1.62 14.58
527 3 22.68 0 12.96
528 1 24.3 1.62 14.58
529 1 0 3.24 12.96
530 2 1.62 4.86 14.58
531 1 3.24 3.24 12.96
532 3 4.86 4.86 14.58
533 2 6.48 3.24 12.96
534 3 8.1 4.86 14.58
535 2 9.72 3.24 12.96
536 2 11.34 4.86 14.58
537 1 12.96 3.24 12.96
538 1 14.58 4.86 14.58
539 1 16.2 3.24 12.96
540 3 17.82 4.86 14.58
541 1 19.44 3.24 12.96
542 3 21.06 4.86 14.58
543 3 22.68 3.24 12.96
544 3 24.3 4.86 14.58
545 3 0 6.48 12.96
546 1 1.62 8.1 14.58
547 1 3.24 6.48 12.96
548 1 4.86 8.1 14.58
549 1 6.48 6.48 12.96
550 3 8.1 8.1 14.58
551 1 9.72 6.48 12.96
552 3 11.34 8.1 14.58
553 1 12.96 6.48 12.96
554 2 14.58 8.1 14.58
555 1 16.2 6.48 12.96
556 2 17.82 8.1 14.58
557 1 19.44 6.48 12.96
558 2 21.06 8.1 14.58
559 3 22.68 6.48 12.96
560 1 24.3 8.1 14.58
561 3 0 9.72 12.96
562 2 1.62 11.34 14.58
563 1 3.24 9.72 12.96
564 2 4.86 11.34 14.58
565 2 6.48 9.72 12.96
566 3 8.1 11.34 14.58
567 2 9.72 9.72 12.96
568 2 11.34 11.34 14.58
569 3 12.96 9.72 12.96
570 2 14.58 11.34 14.58
571 1 16.2 9.72 12.96
572 3 17.82 11.34 14.58
573 3 19.44 9.72 12.96
574 1 21.06 11.34 14.58
575 1 22.68 9.72 12.96
576 2 24.3 11.34 14.58
577 3 0 12.96 12.96
578 3 1.62 14.58 14.58
579 1 3.24 12.96 12.96
580 3 4.86 14.58 14.58
581 2 6.48 12.96 12.96
582 1 8.1 14.58 14.58
583 1 9.72 12.96 12.96
584 1 11.34 14.58 14.58
585 1 12.96 12.96 12.96
586 1 14.58 14.58 14.58
587 3 16.2 12.96 12.96
588 2 17.82 14.58 14.58
589 3 19.44 12.96 12.96
590 3 21.06 14.58 14.58
591 3 22.68 12.96 12.96
592 2 24.3 14.58 14.58
593 1 0 16.2 12.96
594 1 1.62 17.82 14.58
595 2 3.24 16.2 12.96
596 2 4.86 17.82 14.58
597 1 6.48 16.2 12.96
598 1 8.1 17.82 14.58
599 3 9.72 16.2 12.96
600 3 11.34 17.82 14.58
601 1 12.96 16.2 12.96
602 2 14.58 17.82 14.58
603 3 16.2 16.2 12.96
604 1 17.82 17.82 14.58
605 1 19.44 16.2 12.96
606 3 21.06 17.82 14.58
607 1 22.68 16.2 12.96
608 3 24.3 17.82 14.58
609 3 0 19.44 12.96
610 3 1.62 21.06 14.58
611 1 3.24 19.44 12.96
612 3 4.86 21.06 14.58
613 3 6.48 19.44 12.96
614 2 8.1 21.06 14.58
615 1 9.72 19.44 12.96
616 2 11.34 21.06 14.58
617 3 12.96 19.44 12.96
618 3 14.58 21.06 14.58
619 2 16.2 19.44 12.96
620 2 17.82 21.06 14.58
621 2 19.44 19.44 12.96
622 1 21.06 21.06 14.58
623 1 22.68 19.44 12.96
624 1 24.3 21.06 14.58
625 1 0 22.68 12.96
626 1 1.62 24.3 14.58
627 3 3.24 22.68 12.96
628 2 4.86 24.3 14.58
629 2 6.48 22.68 12.96
630 2 8.1 24.3 14.58
631 2 9.72 22.68 12.96
632 1 11.34 24.3 14.58
633 2 12.96 22.68 12.96
634 2 14.58 24.3 14.58
635 3 16.2 22.68 12.96
636 1 17.82 24.3 14.58
637 1 19.44 22.68 12.96
638 3 21.06 24.3 14.58
639 1 22.68 22.68 12.96
640 2 24.3 24.3 14.58
641 3 0 0 16.2
642 2 1.62 1.62 17.82
643 2 3.24 0 16.2
644 1 4.86 1.62 17.82
645 3 6.48 0 16.2
646 1 8.1 1.62 17.82
647 1 9.72 0 16.2
648 1 11.34 1.62 17.82
649 1 12.96 0 16.2
650 3 14.58 1.62 17.82
651 3 16.2 0 16.2
652 3 17.82 1.62 17.82
653 1 19.44 0 16.2
654 1 21.06 1.62 17.82
655 1 22.68 0 16.2
656 3 24.3 1.62 17.82
657 1 0 3.24 16.2
658 1 1.62 4.86 17.82
659 3 3.24 3.24 16.2
660 1 4.86 4.86 17.82
661 2 6.48 3.24 16.2
662 2 8.1 4.86 17.82
663 3 9.72 3.24 16.2
664 2 11.34 4.86 17.82
665 3 12.96 3.24 16.2
666 3 14.58 4.86 17.82
667 3 16.2 3.24 16.2
668 2 17.82 4.86 17.82
669 3 19.44 3.24 16.2
670 3 21.06 4.86 17.82
671 1 22.68 3.24 16.2
672 1 24.3 4.86 17.82
673 3 0 6.48 16.2
674 1 1.62 8.1 17.82
675 2 3.24 6.48 16.2
676 2 4.86 8.1 17.82
677 2 6.48 6.48 16.2
678 1 8.1 8.1 17.82
679 1 9.72 6.48 16.2
680 3 11.34 8.1 17.82
681 1 12.96 6.48 16.2
682 3 14.58 8.1 17.82
683 3 16.2 6.48 16.2
684 3 17.82 8.1 17.82
685 1 19.44 6.48 16.2
686 2 21.06 8.1 17.82
687 1 22.68 6.48 16.2
688 1 24.3 8.1 17.82
689 1 0 9.72 16.2
690 3 1.62 11.34 17.82
691 1 3.24 9.72 16.2
692 1 4.86 11.34 17.82
693 1 6.48 9.72 16.2
694 3 8.1 11.34 17.82
695 3 9.72 9.72 16.2
696 1 11.34 11.34 17.82
697 2 12.96 9.72 16.2
698 3 14.58 11.34 17.82
699 3 16.2 9.72 16.2
700 2 17.82 11.34 17.82
701 1 19.44 9.72 16.2
702 2 21.06 11.34 17.82
703 2 22.68 9.72 16.2
704 2 24.3 11.34 17.82
705 1 0 12.96 16.2
706 3 1.62 14.58 17.82
707 2 3.24 12.96 16.2
708 1 4.86 14.58 17.82
709 1 6.48 12.96 16.2
710 2 8.1 14.58 17.82
711 2 9.72 12.96 16.2
712 3 11.34 14.58 17.82
713 3 12.96 12.96 16.2
714 3 14.58 14.58 17.82
715 1 16.2 12.96 16.2
716 1 17.82 14.58 17.82
717 2 19.44 12.96 16.2
718 2 21.06 14.58 17.82
719 3 22.68 12.96 16.2
720 1 24.3 14.58 17.82
721 2 0 16.2 16.2
722 2 1.62 17.82 17.82
723 1 3.24 16.2 16.2
724 2 4.86 17.82 17.82
725 2 6.48 16.2 16.2
726 2 8.1 17.82 17.82
727 3 9.72 16.2 16.2
728 3 11.34 17.82 17.82
729 1 12.96 16.2 16.2
730 3 14.58 17.82 17.82
731 3 16.2 16.2 16.2
732 1 17.82 17.82 17.82
733 3 19.44 16.2 16.2
734 2 21.06 17.82 17.82
735 1 22.68 16.2 16.2
736 1 24.3 17.82 17.82
737 2 0 19.44 16.2
738 2 1.62 21.06 17.82
739 3 3.24 19.44 16.2
740 2 4.86 21.06 17.82
741 3 6.48 19.44 16.2
742 3 8.1 21.06 17.82
743 2 9.72 19.44 16.2
744 3 11.34 21.06 17.82
745 1 12.96 19.44 16.2
746 1 14.58 21.06 17.82
747 3 16.2 19.44 16.2
748 2 17.82 21.06 17.82
749 2 19.44 19.44 16.2
750 3 21.06 21.06 17.82
751 3 22.68 19.44 16.2
752 1 24.3 21.06 17.82
753 3 0 22.68 16.2
754 2 1.62 24.3 17.82
755 1 3.24 22.68 16.2
756 1 4.86 24.3 17.82
757 3 6.48 22.68 16.2
758 1 8.1 24.3 17.82
759 3 9.72 22.68 16.2
760 2 11.34 24.3 17.82
761 3 12.96 22.68 16.2
762 2 14.58 24.3 17.82
763 3 16.2 22.68 16.2
764 1 17.82 24.3 17.82
765 2 19.44 22.68 16.2
766 3 21.06 24.3 17.82
767 2 22.68 22.68 16.2
768 2 24.3 24.3 17.82
769 1 0 0 19.44
770 1 1.62 1.62 21.06
771 2 3.24 0 19.44
772 3 4.86 1.62 21.06
773 1 6.48 0 19.44
774 2 8.1 1.62 21.06
775 2 9.72 0 19.44
776 3 11.34 1.62 21.06
777 2 12.96 0 19.44
778 3 14.58 1.62 21.06
779 3 16.2 0 19.44
780 2 17.82 1.62 21.06
781 2 19.44 0 19.44
782 2 21.06 1.62 21.06
783 1 22.68 0 19.44
784 3 24.3 1.62 21.06
785 3 0 3.24 19.44
786 1 1.62 4.86 21.06
787 1 3.24 3.24 19.44
788 1 4.86 4.86 21.06
789 3 6.48 3.24 19.44
790 2 8.1 4.86 21.06
791 1 9.72 3.24 19.44
792 3 11.34 4.86 21.06
793 3 12.96 3.24 19.44
794 3 14.58 4.86 21.06
795 3 16.2 3.24 19.44
796 2 17.82 4.86 21.06
797 2 19.44 3.24 19.44
798 2 21.06 4.86 21.06
799 2 22.68 3.24 19.44
800 2 24.3 4.86 21.06
801 3 0 6.48 19.44
802 2 1.62 8.1 21.06
803 1 3.24 6.48 19.44
804 1 4.86 8.1 21.06
805 1 6.48 6.48 19.44
806 3 8.1 8.1 21.06
807 2 9.72 6.48 19.44
808 3 11.34 8.1 21.06
809 3 12.96 6.48 19.44
810 1 14.58 8.1 21.06
811 3 16.2 6.48 19.44
812 3 17.82 8.1 21.06
813 2 19.44 6.48 19.44
814 2 21.06 8.1 21.06
815 2 22.68 6.48 19.44
816 3 24.3 8.1 21.06
817 2 0 9.72 19.44
818 1 1.62 11.34 21.06
819 1 3.24 9.72 19.44
820 3 4.86 11.34 21.06
821 3 6.48 9.72 19.44
822 3 8.1 11.34 21.06
823 3 9.72 9.72 19.44
824 2 11.34 11.34 21.06
825 1 12.96 9.72 19.44
826 3 14.58 11.34 21.06
827 3 16.2 9.72 19.44
828 3 17.82 11.34 21.06
829 2 19.44 9.72 19.44
830 3 21.06 11.34 21.06
831 2 22.68 9.72 19.44
832 3 24.3 11.34 21.06
833 2 0 12.96 19.44
834 3 1.62 14.58 21.06
835 2 3.24 12.96 19.44
836 2 4.86 14.58 21.06
837 1 6.48 12.96 19.44
838 2 8.1 14.58 21.06
839 1 9.72 12.96 19.44
840 3 11.34 14.58 21.06
841 2 12.96 12.96 19.44
842 3 14.58 14.58 21.06
843 3 16.2 12.96 19.44
844 2 17.82 14.58 21.06
845 3 19.44 12.96 19.44
846 3 21.06 14.58 21.06
847 2 22.68 12.96 19.44
848 2 24.3 14.58 21.06
849 3 0 16.2 19.44
850 1 1.62 17.82 21.06
851 2 3.24 16.2 19.44
852 3 4.86 17.82 21.06
853 1 6.48 16.2 19.44
854 3 8.1 17.82 21.06
855 2 9.72 16.2 19.44
856 1 11.34 17.82 21.06
857 3 12.96 16.2 19.44
858 3 14.58 17.82 21.06
859 1 16.2 16.2 19.44
860 1 17.82 17.82 21.06
861 1 19.44 16.2 19.44
862 1 21.06 17.82 21.06
863 3 22.68 16.2 19.44
864 2 24.3 17.82 21.06
865 2 0 19.44 19.44
866 3 1.62 21.06 21.06
867 2 3.24 19.44 19.44
868 2 4.86 21.06 21.06
869 1 6.48 19.44 19.44
870 2 8.1 21.06 21.06
871 2 9.72 19.44 19.44
872 1 11.34 21.06 21.06
873 2 12.96 19.44 19.44
874 3 14.58 21.06 21.06
875 3 16.2 19.44 19.44
876 2 17.82 21.06 21.06
877 3 19.44 19.44 19.44
878 3 21.06 21.06 21.06
879 3 22.68 19.44 19.44
880 2 24.3 21.06 21.06
881 3 0 22.68 19.44
882 2 1.62 24.3 21.06
883 1 3.24 22.68 19.44
884 2 4.86 24.3 21.06
885 3 6.48 22.68 19.44
886 1 8.1 24.3 21.06
887 3 9.72 22.68 19.44
888 2 11.34 24.3 21.06
889 3 12.96 22.68 19.44
890 3 14.58 24.3 21.06
891 3 16.2 22.68 19.44
892 1 17.82 24.3 21.06
893 1 19.44 22.68 19.44
894 1 21.06 24.3 21.06
895 3 22.68 22.68 19.44
896 3 24.3 24.3 21.06
897 3 0 0 22.68
898 3 1.62 1.62 24.3
899 3 3.24 0 22.68
900 2 4.86 1.62 24.3
901 1 6.48 0 22.68
902 1 8.1 1.62 24.3
903 3 9.72 0 22.68
904 3 11.34 1.62 24.3
905 1 12.96 0 22.68
906 3 14.58 1.62 24.3
907 3 16.2 0 22.68
908 2 17.82 1.62 24.3
909 2 19.44 0 22.68
910 3 21.06 1.62 24.3
911 1 22.68 0 22.68
912 2 24.3 1.62 24.3
913 3 0 3.24 22.68
914 2 1.62 4.86 24.3
915 2 3.24 3.24 22.68
916 2 4.86 4.86 24.3
917 1 6.48 3.24 22.68
918 2 8.1 4.86 24.3
919 2 9.72 3.24 22.68
920 2 11.34 4.86 24.3
921 3 12.96 3.24 22.68
922 2 14.58 4.86 24.3
923 2 16.2 3.24 22.68
924 1 17.82 4.86 24.3
925 1 19.44 3.24 22.68
926 2 21.06 4.86 24.3
927 2 22.68 3.24 22.68
928 2 24.3 4.86 24.3
929 1 0 6.48 22.68
930 2 1.62 8.1 24.3
931 2 3.24 6.48 22.68
932 1 4.86 8.1 24.3
933 1 6.48 6.48 22.68
934 3 8.1 8.1 24.3
935 3 9.72 6.48 22.68
936 1 11.34 8.1 24.3
937 2 12.96 6.48 22.68
938 2 14.58 8.1 24.3
939 3 16.2 6.48 22.68
940 3 17.82 8.1 24.3
941 2 19.44 6.48 22.68
942 2 21.06 8.1 24.3
943 2 22.68 6.48 22.68
944 2 24.3 8.1 24.3
945 1 0 9.72 22.68
946 3 1.62 11.34 24.3
947 1 3.24 9.72 22.68
948 2 4.86 11.34 24.3
949 2 6.48 9.72 22.68
950 1 8.1 11.34 24.3
951 2 9.72 9.72 22.68
952 1 11.34 11.34 24.3
953 1 12.96 9.72 22.68
954 2 14.58 11.34 24.3
955 1 16.2 9.72 22.68
956 1 17.82 11.34 24.3
957 2 19.44 9.72 22.68
958 3 21.06 11.34 24.3
959 1 22.68 9.72 22.68
960 2 24.3 11.34 24.3
961 1 0 12.96 22.68
962 3 1.62 14.58 24.3
963 3 3.24 12.96 22.68
964 2 4.86 14.58 24.3
965 3 6.48 12.96 22.68
966 3 8.1 14.58 24.3
967 1 9.72 12.96 22.68
968 1 11.34 14.58 24.3
969 2 12.96 12.96 22.68
970 2 14.58 14.58 24.3
971 1 16.2 12.96 22.68
972 2 17.82 14.58 24.3
973 3 19.44 12.96 22.68
974 1 21.06 14.58 24.3
975 3 22.68 12.96 22.68
976 2 24.3 14.58 24.3
977 2 0 16.2 22.68
978 2 1.62 17.82 24.3
979 3 3.24 16.2 22.68
980 2 4.86 17.82 24.3
981 1 6.48 16.2 22.68
982 2 8.1 17.82 24.3
983 1 9.72 16.2 22.68
984 1 11.34 17.82 24.3
985 2 12.96 16.2 22.68
986 1 14.58 17.82 24.3
987 2 16.2 16.2 22.68
988 2 17.82 17.82 24.3
989 3 19.44 16.2 22.68
990 1 21.06 17.82 24.3
991 2 22.68 16.2 22.68
992 2 24.3 17.82 24.3
993 2 0 19.44 22.68
994 3 1.62 21.06 24.3
995 1 3.24 19.44 22.68
996 3 4.86 21.06 24.3
997 3 6.48 19.44 22.68
998 2 8.1 21.06 24.3
999 1 9.72 19.44 22.68
1000 1 11.34 21.06 24.3
1001 3 12.96 19.44 22.68
1002 3 14.58 21.06 24.3
1003 3 16.2 19.44 22.68
1004 1 17.82 21.06 24.3
1005 2 19.44 19.44 22.68
1006 3 21.06 21.06 24.3
1007 1 22.68 19.44 22.68
1008 1 24.3 21.06 24.3
1009 3 0 22.68 22.68
1010 2 1.62 24.3 24.3
1011 2 3.24 22.68 22.68
1012 1 4.86 24.3 24.3
1013 1 6.48 22.68 22.68
1014 2 8.1 24.3 24.3
1015 1 9.72 22.68 22.68
1016 3 11.34 24.3 24.3
1017 2 12.96 22.68 22.68
1018 2 14.58 24.3 24.3
1019 1 16.2 22.68 22.68
1020 1 17.82 24.3 24.3
1021 3 19.44 22.68 22.68
1022 3 21.06 24.3 24.3
1023 2 22.68 22.68 22.68
1024 1 24.3 24.3 24.3
